#**********************************************************
# FileNanme : makefile
# Author    : ZhaoPeng
# Time      : 2024-04-23 21:49:25
# Discribe  : 
#----------------------copyright 2023----------------------
#**********************************************************


DOWN_TOOL = /home/zhaopeng/programs/gowin/openFPGA/openFPGALoader
DOWN_FS   = ./impl/pnr/lab1_led.fs
DOWN_TARGET = tangnano9k

down_fs:
	sudo $(DOWN_TOOL) -b $(DOWN_TARGET) $(DOWN_FS)
	

.PHONY: down_fs

